<?xml version="1.0" encoding="UTF-8"?>

<!-- generated on Fri Feb  8 13:01:41 2019 by Eclipse SUMO Version v1_1_0+0417-c407ef5
<configuration xmlns:xsi="http://www.w3.org/2001/XMLSchema-instance" xsi:noNamespaceSchemaLocation="http://sumo.dlr.de/xsd/sumoConfiguration.xsd">

    <input>
        <net-file value="./sumo/net.net.xml"/>
        <route-files value="./sumo/routes.rou.xml"/>
    </input>

    <output>
        <netstate-dump value="./sumo/../../netstate.xml"/>
        <netstate-dump.empty-edges value="false"/>
    </output>

    <processing>
        <default.speeddev value="0"/>
    </processing>

    <report>
        <no-step-log value="true"/>
    </report>

    <traci_server>
        <remote-port value="41999"/>
    </traci_server>

</configuration>
-->

<netstate xmlns:xsi="http://www.w3.org/2001/XMLSchema-instance" xsi:noNamespaceSchemaLocation="http://sumo.dlr.de/xsd/netstate_file.xsd">
    <timestep time="0.00">
        <edge id="WC">
            <lane id="WC_0">
                <vehicle id="veh1" pos="5.10" speed="0.00"/>
            </lane>
        </edge>
    </timestep>
    <timestep time="1.00">
        <edge id="WC">
            <lane id="WC_0">
                <vehicle id="veh1" pos="7.70" speed="2.60"/>
            </lane>
        </edge>
    </timestep>
    <timestep time="2.00">
        <edge id="WC">
            <lane id="WC_0">
                <vehicle id="veh1" pos="11.20" speed="3.50"/>
            </lane>
        </edge>
    </timestep>
    <timestep time="3.00">
        <edge id="WC">
            <lane id="WC_0">
                <vehicle id="veh0" pos="5.10" speed="0.00"/>
                <vehicle id="veh1" pos="14.70" speed="3.50"/>
            </lane>
        </edge>
    </timestep>
    <timestep time="4.00">
        <edge id="WC">
            <lane id="WC_0">
                <vehicle id="veh0" pos="7.20" speed="2.10"/>
                <vehicle id="veh1" pos="18.20" speed="3.50"/>
            </lane>
        </edge>
    </timestep>
    <timestep time="5.00">
        <edge id="WC">
            <lane id="WC_0">
                <vehicle id="veh0" pos="10.70" speed="3.50"/>
                <vehicle id="veh1" pos="21.70" speed="3.50"/>
            </lane>
        </edge>
    </timestep>
    <timestep time="6.00">
        <edge id="WC">
            <lane id="WC_0">
                <vehicle id="veh0" pos="14.20" speed="3.50"/>
                <vehicle id="veh1" pos="25.20" speed="3.50"/>
            </lane>
        </edge>
    </timestep>
    <timestep time="7.00">
        <edge id="WC">
            <lane id="WC_0">
                <vehicle id="veh0" pos="17.70" speed="3.50"/>
                <vehicle id="veh1" pos="28.70" speed="3.50"/>
            </lane>
        </edge>
    </timestep>
    <timestep time="8.00">
        <edge id="WC">
            <lane id="WC_0">
                <vehicle id="veh0" pos="21.20" speed="3.50"/>
                <vehicle id="veh1" pos="32.20" speed="3.50"/>
            </lane>
        </edge>
    </timestep>
    <timestep time="9.00">
        <edge id="WC">
            <lane id="WC_0">
                <vehicle id="veh0" pos="24.70" speed="3.50"/>
                <vehicle id="veh1" pos="35.70" speed="3.50"/>
            </lane>
        </edge>
    </timestep>
    <timestep time="10.00">
        <edge id="WC">
            <lane id="WC_0">
                <vehicle id="veh0" pos="28.20" speed="3.50"/>
                <vehicle id="veh1" pos="39.20" speed="3.50"/>
            </lane>
        </edge>
    </timestep>
    <timestep time="11.00">
        <edge id="WC">
            <lane id="WC_0">
                <vehicle id="veh0" pos="31.70" speed="3.50"/>
                <vehicle id="veh1" pos="42.70" speed="3.50"/>
            </lane>
        </edge>
    </timestep>
    <timestep time="12.00">
        <edge id="WC">
            <lane id="WC_0">
                <vehicle id="veh0" pos="35.20" speed="3.50"/>
                <vehicle id="veh1" pos="46.20" speed="3.50"/>
            </lane>
        </edge>
    </timestep>
    <timestep time="13.00">
        <edge id="WC">
            <lane id="WC_0">
                <vehicle id="veh0" pos="38.70" speed="3.50"/>
                <vehicle id="veh1" pos="49.70" speed="3.50"/>
            </lane>
        </edge>
    </timestep>
    <timestep time="14.00">
        <edge id="WC">
            <lane id="WC_0">
                <vehicle id="veh0" pos="42.20" speed="3.50"/>
                <vehicle id="veh1" pos="53.20" speed="3.50"/>
            </lane>
        </edge>
    </timestep>
    <timestep time="15.00">
        <edge id="WC">
            <lane id="WC_0">
                <vehicle id="veh0" pos="45.70" speed="3.50"/>
                <vehicle id="veh1" pos="56.70" speed="3.50"/>
            </lane>
        </edge>
    </timestep>
    <timestep time="16.00">
        <edge id="WC">
            <lane id="WC_0">
                <vehicle id="veh0" pos="49.20" speed="3.50"/>
                <vehicle id="veh1" pos="60.20" speed="3.50"/>
            </lane>
        </edge>
    </timestep>
    <timestep time="17.00">
        <edge id="WC">
            <lane id="WC_0">
                <vehicle id="veh0" pos="52.70" speed="3.50"/>
                <vehicle id="veh1" pos="63.70" speed="3.50"/>
            </lane>
        </edge>
    </timestep>
    <timestep time="18.00">
        <edge id="WC">
            <lane id="WC_0">
                <vehicle id="veh0" pos="56.20" speed="3.50"/>
                <vehicle id="veh1" pos="67.20" speed="3.50"/>
            </lane>
        </edge>
    </timestep>
    <timestep time="19.00">
        <edge id="WC">
            <lane id="WC_0">
                <vehicle id="veh0" pos="59.70" speed="3.50"/>
                <vehicle id="veh1" pos="70.70" speed="3.50"/>
            </lane>
        </edge>
    </timestep>
    <timestep time="20.00">
        <edge id="WC">
            <lane id="WC_0">
                <vehicle id="veh0" pos="63.20" speed="3.50"/>
                <vehicle id="veh1" pos="74.20" speed="3.50"/>
            </lane>
        </edge>
    </timestep>
    <timestep time="21.00">
        <edge id="WC">
            <lane id="WC_0">
                <vehicle id="veh0" pos="66.70" speed="3.50"/>
                <vehicle id="veh1" pos="77.70" speed="3.50"/>
            </lane>
        </edge>
    </timestep>
    <timestep time="22.00">
        <edge id="WC">
            <lane id="WC_0">
                <vehicle id="veh0" pos="70.20" speed="3.50"/>
                <vehicle id="veh1" pos="81.20" speed="3.50"/>
            </lane>
        </edge>
    </timestep>
    <timestep time="23.00">
        <edge id="WC">
            <lane id="WC_0">
                <vehicle id="veh0" pos="73.70" speed="3.50"/>
                <vehicle id="veh1" pos="84.70" speed="3.50"/>
            </lane>
        </edge>
    </timestep>
    <timestep time="24.00">
        <edge id="WC">
            <lane id="WC_0">
                <vehicle id="veh0" pos="77.20" speed="3.50"/>
                <vehicle id="veh1" pos="88.20" speed="3.50"/>
            </lane>
        </edge>
    </timestep>
    <timestep time="25.00">
        <edge id="WC">
            <lane id="WC_0">
                <vehicle id="veh0" pos="80.70" speed="3.50"/>
                <vehicle id="veh1" pos="91.70" speed="3.50"/>
            </lane>
        </edge>
    </timestep>
    <timestep time="26.00">
        <edge id="WC">
            <lane id="WC_0">
                <vehicle id="veh0" pos="84.20" speed="3.50"/>
                <vehicle id="veh1" pos="95.20" speed="3.50"/>
            </lane>
        </edge>
    </timestep>
    <timestep time="27.00">
        <edge id=":C_10">
            <lane id=":C_10_0">
                <vehicle id="veh1" pos="3.45" speed="3.50"/>
            </lane>
        </edge>
        <edge id="WC">
            <lane id="WC_0">
                <vehicle id="veh0" pos="87.70" speed="3.50"/>
            </lane>
        </edge>
    </timestep>
    <timestep time="28.00">
        <edge id=":C_10">
            <lane id=":C_10_0">
                <vehicle id="veh1" pos="6.95" speed="3.50"/>
            </lane>
        </edge>
        <edge id="WC">
            <lane id="WC_0">
                <vehicle id="veh0" pos="91.20" speed="3.50"/>
            </lane>
        </edge>
    </timestep>
    <timestep time="29.00">
        <edge id="CE">
            <lane id="CE_0">
                <vehicle id="veh1" pos="0.95" speed="3.50"/>
            </lane>
        </edge>
        <edge id="WC">
            <lane id="WC_0">
                <vehicle id="veh0" pos="94.70" speed="3.50"/>
            </lane>
        </edge>
    </timestep>
    <timestep time="30.00">
        <edge id=":C_10">
            <lane id=":C_10_0">
                <vehicle id="veh0" pos="2.95" speed="3.50"/>
            </lane>
        </edge>
        <edge id="CE">
            <lane id="CE_0">
                <vehicle id="veh1" pos="4.45" speed="3.50"/>
            </lane>
        </edge>
    </timestep>
    <timestep time="31.00">
        <edge id=":C_10">
            <lane id=":C_10_0">
                <vehicle id="veh0" pos="6.45" speed="3.50"/>
            </lane>
        </edge>
        <edge id="CE">
            <lane id="CE_0">
                <vehicle id="veh1" pos="7.95" speed="3.50"/>
            </lane>
        </edge>
    </timestep>
    <timestep time="32.00">
        <edge id="CE">
            <lane id="CE_0">
                <vehicle id="veh0" pos="0.45" speed="3.50"/>
                <vehicle id="veh1" pos="11.45" speed="3.50"/>
            </lane>
        </edge>
    </timestep>
    <timestep time="33.00">
        <edge id="CE">
            <lane id="CE_0">
                <vehicle id="veh0" pos="3.95" speed="3.50"/>
                <vehicle id="veh1" pos="14.95" speed="3.50"/>
            </lane>
        </edge>
    </timestep>
    <timestep time="34.00">
        <edge id="CE">
            <lane id="CE_0">
                <vehicle id="veh0" pos="7.45" speed="3.50"/>
                <vehicle id="veh1" pos="18.45" speed="3.50"/>
            </lane>
        </edge>
    </timestep>
    <timestep time="35.00">
        <edge id="CE">
            <lane id="CE_0">
                <vehicle id="veh0" pos="10.95" speed="3.50"/>
                <vehicle id="veh1" pos="21.95" speed="3.50"/>
            </lane>
        </edge>
    </timestep>
    <timestep time="36.00">
        <edge id="CE">
            <lane id="CE_0">
                <vehicle id="veh0" pos="14.45" speed="3.50"/>
                <vehicle id="veh1" pos="25.45" speed="3.50"/>
            </lane>
        </edge>
    </timestep>
    <timestep time="37.00">
        <edge id="CE">
            <lane id="CE_0">
                <vehicle id="veh0" pos="17.95" speed="3.50"/>
                <vehicle id="veh1" pos="28.95" speed="3.50"/>
            </lane>
        </edge>
    </timestep>
    <timestep time="38.00">
        <edge id="CE">
            <lane id="CE_0">
                <vehicle id="veh0" pos="21.45" speed="3.50"/>
                <vehicle id="veh1" pos="32.45" speed="3.50"/>
            </lane>
        </edge>
    </timestep>
    <timestep time="39.00">
        <edge id="CE">
            <lane id="CE_0">
                <vehicle id="veh0" pos="24.95" speed="3.50"/>
                <vehicle id="veh1" pos="35.95" speed="3.50"/>
            </lane>
        </edge>
    </timestep>
    <timestep time="40.00">
        <edge id="CE">
            <lane id="CE_0">
                <vehicle id="veh0" pos="28.45" speed="3.50"/>
                <vehicle id="veh1" pos="39.45" speed="3.50"/>
            </lane>
        </edge>
    </timestep>
    <timestep time="41.00">
        <edge id="CE">
            <lane id="CE_0">
                <vehicle id="veh0" pos="31.95" speed="3.50"/>
                <vehicle id="veh1" pos="42.95" speed="3.50"/>
            </lane>
        </edge>
    </timestep>
    <timestep time="42.00">
        <edge id="CE">
            <lane id="CE_0">
                <vehicle id="veh0" pos="35.45" speed="3.50"/>
                <vehicle id="veh1" pos="46.45" speed="3.50"/>
            </lane>
        </edge>
    </timestep>
    <timestep time="43.00">
        <edge id="CE">
            <lane id="CE_0">
                <vehicle id="veh0" pos="38.95" speed="3.50"/>
                <vehicle id="veh1" pos="49.95" speed="3.50"/>
            </lane>
        </edge>
    </timestep>
    <timestep time="44.00">
        <edge id="CE">
            <lane id="CE_0">
                <vehicle id="veh0" pos="42.45" speed="3.50"/>
                <vehicle id="veh1" pos="53.45" speed="3.50"/>
            </lane>
        </edge>
    </timestep>
    <timestep time="45.00">
        <edge id="CE">
            <lane id="CE_0">
                <vehicle id="veh0" pos="45.95" speed="3.50"/>
                <vehicle id="veh1" pos="56.95" speed="3.50"/>
            </lane>
        </edge>
    </timestep>
    <timestep time="46.00">
        <edge id="CE">
            <lane id="CE_0">
                <vehicle id="veh0" pos="49.45" speed="3.50"/>
                <vehicle id="veh1" pos="60.45" speed="3.50"/>
            </lane>
        </edge>
    </timestep>
    <timestep time="47.00">
        <edge id="CE">
            <lane id="CE_0">
                <vehicle id="veh0" pos="52.95" speed="3.50"/>
                <vehicle id="veh1" pos="63.95" speed="3.50"/>
            </lane>
        </edge>
    </timestep>
    <timestep time="48.00">
        <edge id="CE">
            <lane id="CE_0">
                <vehicle id="veh0" pos="56.45" speed="3.50"/>
                <vehicle id="veh1" pos="67.45" speed="3.50"/>
            </lane>
        </edge>
    </timestep>
    <timestep time="49.00">
        <edge id="CE">
            <lane id="CE_0">
                <vehicle id="veh0" pos="59.95" speed="3.50"/>
                <vehicle id="veh1" pos="70.95" speed="3.50"/>
            </lane>
        </edge>
    </timestep>
    <timestep time="50.00">
        <edge id="CE">
            <lane id="CE_0">
                <vehicle id="veh0" pos="63.45" speed="3.50"/>
                <vehicle id="veh1" pos="74.45" speed="3.50"/>
            </lane>
        </edge>
    </timestep>
    <timestep time="51.00">
        <edge id="CE">
            <lane id="CE_0">
                <vehicle id="veh0" pos="66.95" speed="3.50"/>
                <vehicle id="veh1" pos="77.95" speed="3.50"/>
            </lane>
        </edge>
    </timestep>
    <timestep time="52.00">
        <edge id="CE">
            <lane id="CE_0">
                <vehicle id="veh0" pos="70.45" speed="3.50"/>
                <vehicle id="veh1" pos="81.45" speed="3.50"/>
            </lane>
        </edge>
    </timestep>
    <timestep time="53.00">
        <edge id="CE">
            <lane id="CE_0">
                <vehicle id="veh0" pos="73.95" speed="3.50"/>
                <vehicle id="veh1" pos="84.95" speed="3.50"/>
            </lane>
        </edge>
    </timestep>
    <timestep time="54.00">
        <edge id="CE">
            <lane id="CE_0">
                <vehicle id="veh0" pos="77.45" speed="3.50"/>
                <vehicle id="veh1" pos="88.45" speed="3.50"/>
            </lane>
        </edge>
    </timestep>
    <timestep time="55.00">
        <edge id="CE">
            <lane id="CE_0">
                <vehicle id="veh0" pos="80.95" speed="3.50"/>
                <vehicle id="veh1" pos="91.95" speed="3.50"/>
            </lane>
        </edge>
    </timestep>
    <timestep time="56.00">
        <edge id="CE">
            <lane id="CE_0">
                <vehicle id="veh0" pos="84.45" speed="3.50"/>
            </lane>
        </edge>
    </timestep>
    <timestep time="57.00">
        <edge id="CE">
            <lane id="CE_0">
                <vehicle id="veh0" pos="88.45" speed="4.00"/>
            </lane>
        </edge>
    </timestep>
    <timestep time="58.00">
        <edge id="CE">
            <lane id="CE_0">
                <vehicle id="veh0" pos="92.45" speed="4.00"/>
            </lane>
        </edge>
    </timestep>
    <timestep time="59.00"/>
    <timestep time="60.00"/>
    <timestep time="61.00"/>
    <timestep time="62.00"/>
    <timestep time="63.00"/>
    <timestep time="64.00"/>
    <timestep time="65.00"/>
    <timestep time="66.00"/>
    <timestep time="67.00"/>
    <timestep time="68.00"/>
    <timestep time="69.00"/>
    <timestep time="70.00"/>
    <timestep time="71.00"/>
    <timestep time="72.00"/>
    <timestep time="73.00"/>
    <timestep time="74.00"/>
    <timestep time="75.00"/>
    <timestep time="76.00"/>
    <timestep time="77.00"/>
    <timestep time="78.00"/>
    <timestep time="79.00"/>
    <timestep time="80.00"/>
    <timestep time="81.00"/>
    <timestep time="82.00"/>
    <timestep time="83.00"/>
    <timestep time="84.00"/>
    <timestep time="85.00"/>
    <timestep time="86.00"/>
    <timestep time="87.00"/>
    <timestep time="88.00"/>
    <timestep time="89.00"/>
    <timestep time="90.00"/>
    <timestep time="91.00"/>
    <timestep time="92.00"/>
    <timestep time="93.00"/>
    <timestep time="94.00"/>
    <timestep time="95.00"/>
    <timestep time="96.00"/>
    <timestep time="97.00"/>
    <timestep time="98.00"/>
    <timestep time="99.00"/>
    <timestep time="100.00"/>
</netstate>
