<?xml version="1.0" encoding="UTF-8"?>

<!-- generated on Thu Apr 11 12:21:22 2019 by Eclipse SUMO Version UNKNOWN
<configuration xmlns:xsi="http://www.w3.org/2001/XMLSchema-instance" xsi:noNamespaceSchemaLocation="http://sumo.dlr.de/xsd/sumoConfiguration.xsd">

    <input>
        <net-file value="./sumo/net.net.xml"/>
        <route-files value="./sumo/routes.rou.xml"/>
    </input>

    <output>
        <netstate-dump value="./sumo/../../netstate.xml"/>
        <netstate-dump.empty-edges value="false"/>
    </output>

    <time>
        <step-length value="0.1"/>
    </time>

    <processing>
        <default.speeddev value="0"/>
    </processing>

    <report>
        <no-step-log value="true"/>
    </report>

    <traci_server>
        <remote-port value="39883"/>
    </traci_server>

    <gui_only>
        <tracker-interval value="0.1"/>
    </gui_only>

</configuration>
-->

<netstate xmlns:xsi="http://www.w3.org/2001/XMLSchema-instance" xsi:noNamespaceSchemaLocation="http://sumo.dlr.de/xsd/netstate_file.xsd">
    <timestep time="0.00">
        <edge id="0_1">
            <lane id="0_1_0">
                <vehicle id="0" pos="178.20" speed="16.38"/>
            </lane>
            <lane id="0_1_1"/>
            <lane id="0_1_2"/>
        </edge>
    </timestep>
    <timestep time="0.10">
        <edge id="0_1">
            <lane id="0_1_0">
                <vehicle id="0" pos="179.83" speed="16.25"/>
            </lane>
            <lane id="0_1_1"/>
            <lane id="0_1_2"/>
        </edge>
    </timestep>
    <timestep time="0.20">
        <edge id="0_1">
            <lane id="0_1_0">
                <vehicle id="0" pos="181.46" speed="16.33"/>
            </lane>
            <lane id="0_1_1"/>
            <lane id="0_1_2"/>
        </edge>
    </timestep>
    <timestep time="0.30">
        <edge id="0_1">
            <lane id="0_1_0">
                <vehicle id="0" pos="183.09" speed="16.28"/>
            </lane>
            <lane id="0_1_1"/>
            <lane id="0_1_2"/>
        </edge>
    </timestep>
    <timestep time="0.40">
        <edge id="0_1">
            <lane id="0_1_0">
                <vehicle id="0" pos="184.72" speed="16.31"/>
            </lane>
            <lane id="0_1_1"/>
            <lane id="0_1_2"/>
        </edge>
    </timestep>
    <timestep time="0.50">
        <edge id="0_1">
            <lane id="0_1_0">
                <vehicle id="0" pos="186.36" speed="16.37"/>
            </lane>
            <lane id="0_1_1"/>
            <lane id="0_1_2"/>
        </edge>
        <edge id="3_2">
            <lane id="3_2_0">
                <vehicle id="1" pos="142.50" speed="16.38"/>
            </lane>
            <lane id="3_2_1"/>
            <lane id="3_2_2"/>
        </edge>
    </timestep>
    <timestep time="0.60">
        <edge id="0_1">
            <lane id="0_1_0">
                <vehicle id="0" pos="187.99" speed="16.30"/>
            </lane>
            <lane id="0_1_1"/>
            <lane id="0_1_2"/>
        </edge>
        <edge id="3_2">
            <lane id="3_2_0">
                <vehicle id="1" pos="144.13" speed="16.30"/>
            </lane>
            <lane id="3_2_1"/>
            <lane id="3_2_2"/>
        </edge>
    </timestep>
    <timestep time="0.70">
        <edge id="0_1">
            <lane id="0_1_0">
                <vehicle id="0" pos="189.61" speed="16.30"/>
            </lane>
            <lane id="0_1_1"/>
            <lane id="0_1_2"/>
        </edge>
        <edge id="3_2">
            <lane id="3_2_0">
                <vehicle id="1" pos="145.77" speed="16.37"/>
            </lane>
            <lane id="3_2_1"/>
            <lane id="3_2_2"/>
        </edge>
    </timestep>
    <timestep time="0.80">
        <edge id="0_1">
            <lane id="0_1_0">
                <vehicle id="0" pos="191.25" speed="16.31"/>
            </lane>
            <lane id="0_1_1"/>
            <lane id="0_1_2"/>
        </edge>
        <edge id="3_2">
            <lane id="3_2_0">
                <vehicle id="1" pos="147.40" speed="16.32"/>
            </lane>
            <lane id="3_2_1"/>
            <lane id="3_2_2"/>
        </edge>
    </timestep>
    <timestep time="0.90">
        <edge id="0_1">
            <lane id="0_1_0">
                <vehicle id="0" pos="192.88" speed="16.37"/>
            </lane>
            <lane id="0_1_1">
                <vehicle id="2" pos="9.10" speed="18.33"/>
            </lane>
            <lane id="0_1_2"/>
        </edge>
        <edge id="3_2">
            <lane id="3_2_0">
                <vehicle id="1" pos="149.03" speed="16.36"/>
            </lane>
            <lane id="3_2_1"/>
            <lane id="3_2_2"/>
        </edge>
    </timestep>
    <timestep time="1.00">
        <edge id="0_1">
            <lane id="0_1_0">
                <vehicle id="0" pos="194.51" speed="16.32"/>
            </lane>
            <lane id="0_1_1">
                <vehicle id="2" pos="10.92" speed="18.24"/>
            </lane>
            <lane id="0_1_2"/>
        </edge>
        <edge id="3_2">
            <lane id="3_2_0">
                <vehicle id="1" pos="150.66" speed="16.26"/>
            </lane>
            <lane id="3_2_1"/>
            <lane id="3_2_2"/>
        </edge>
    </timestep>
    <timestep time="1.10">
        <edge id="0_1">
            <lane id="0_1_0">
                <vehicle id="0" pos="196.15" speed="16.33"/>
            </lane>
            <lane id="0_1_1">
                <vehicle id="2" pos="12.75" speed="18.29"/>
            </lane>
            <lane id="0_1_2"/>
        </edge>
        <edge id="3_2">
            <lane id="3_2_0">
                <vehicle id="1" pos="152.29" speed="16.26"/>
            </lane>
            <lane id="3_2_1"/>
            <lane id="3_2_2"/>
        </edge>
    </timestep>
    <timestep time="1.20">
        <edge id="0_1">
            <lane id="0_1_0">
                <vehicle id="0" pos="197.78" speed="16.32"/>
            </lane>
            <lane id="0_1_1">
                <vehicle id="2" pos="14.57" speed="18.22"/>
            </lane>
            <lane id="0_1_2"/>
        </edge>
        <edge id="3_2">
            <lane id="3_2_0">
                <vehicle id="1" pos="153.91" speed="16.27"/>
            </lane>
            <lane id="3_2_1"/>
            <lane id="3_2_2"/>
        </edge>
    </timestep>
    <timestep time="1.30">
        <edge id="0_1">
            <lane id="0_1_0">
                <vehicle id="0" pos="199.40" speed="16.26"/>
            </lane>
            <lane id="0_1_1">
                <vehicle id="2" pos="16.39" speed="18.21"/>
            </lane>
            <lane id="0_1_2"/>
        </edge>
        <edge id="3_2">
            <lane id="3_2_0">
                <vehicle id="1" pos="155.55" speed="16.37"/>
            </lane>
            <lane id="3_2_1"/>
            <lane id="3_2_2"/>
        </edge>
    </timestep>
    <timestep time="1.40">
        <edge id="0_1">
            <lane id="0_1_0"/>
            <lane id="0_1_1">
                <vehicle id="2" pos="18.22" speed="18.33"/>
            </lane>
            <lane id="0_1_2"/>
        </edge>
        <edge id="1_2">
            <lane id="1_2_0">
                <vehicle id="0" pos="0.93" speed="16.25"/>
            </lane>
            <lane id="1_2_1"/>
            <lane id="1_2_2"/>
        </edge>
        <edge id="3_2">
            <lane id="3_2_0">
                <vehicle id="1" pos="157.18" speed="16.30"/>
            </lane>
            <lane id="3_2_1">
                <vehicle id="3" pos="98.29" speed="18.33"/>
            </lane>
            <lane id="3_2_2"/>
        </edge>
    </timestep>
    <timestep time="1.50">
        <edge id="0_1">
            <lane id="0_1_0"/>
            <lane id="0_1_1">
                <vehicle id="2" pos="20.06" speed="18.32"/>
            </lane>
            <lane id="0_1_2"/>
        </edge>
        <edge id="1_2">
            <lane id="1_2_0">
                <vehicle id="0" pos="2.57" speed="16.35"/>
            </lane>
            <lane id="1_2_1"/>
            <lane id="1_2_2"/>
        </edge>
        <edge id="3_2">
            <lane id="3_2_0">
                <vehicle id="1" pos="158.82" speed="16.38"/>
            </lane>
            <lane id="3_2_1">
                <vehicle id="3" pos="100.12" speed="18.27"/>
            </lane>
            <lane id="3_2_2"/>
        </edge>
    </timestep>
    <timestep time="1.60">
        <edge id="0_1">
            <lane id="0_1_0"/>
            <lane id="0_1_1">
                <vehicle id="2" pos="21.88" speed="18.21"/>
            </lane>
            <lane id="0_1_2"/>
        </edge>
        <edge id="1_2">
            <lane id="1_2_0">
                <vehicle id="0" pos="4.20" speed="16.37"/>
            </lane>
            <lane id="1_2_1"/>
            <lane id="1_2_2"/>
        </edge>
        <edge id="3_2">
            <lane id="3_2_0">
                <vehicle id="1" pos="160.45" speed="16.34"/>
            </lane>
            <lane id="3_2_1">
                <vehicle id="3" pos="101.94" speed="18.21"/>
            </lane>
            <lane id="3_2_2"/>
        </edge>
    </timestep>
    <timestep time="1.70">
        <edge id="0_1">
            <lane id="0_1_0"/>
            <lane id="0_1_1">
                <vehicle id="2" pos="23.70" speed="18.24"/>
            </lane>
            <lane id="0_1_2"/>
        </edge>
        <edge id="1_2">
            <lane id="1_2_0">
                <vehicle id="0" pos="5.83" speed="16.29"/>
            </lane>
            <lane id="1_2_1"/>
            <lane id="1_2_2"/>
        </edge>
        <edge id="3_2">
            <lane id="3_2_0">
                <vehicle id="1" pos="162.08" speed="16.28"/>
            </lane>
            <lane id="3_2_1">
                <vehicle id="3" pos="103.77" speed="18.31"/>
            </lane>
            <lane id="3_2_2"/>
        </edge>
    </timestep>
    <timestep time="1.80">
        <edge id="0_1">
            <lane id="0_1_0"/>
            <lane id="0_1_1">
                <vehicle id="2" pos="25.53" speed="18.29"/>
            </lane>
            <lane id="0_1_2"/>
        </edge>
        <edge id="1_2">
            <lane id="1_2_0">
                <vehicle id="0" pos="7.46" speed="16.30"/>
            </lane>
            <lane id="1_2_1"/>
            <lane id="1_2_2"/>
        </edge>
        <edge id="3_2">
            <lane id="3_2_0">
                <vehicle id="1" pos="163.71" speed="16.28"/>
            </lane>
            <lane id="3_2_1">
                <vehicle id="3" pos="105.60" speed="18.27"/>
            </lane>
            <lane id="3_2_2"/>
        </edge>
    </timestep>
    <timestep time="1.90">
        <edge id="0_1">
            <lane id="0_1_0">
                <vehicle id="4" pos="117.99" speed="16.38"/>
            </lane>
            <lane id="0_1_1">
                <vehicle id="2" pos="27.35" speed="18.24"/>
            </lane>
            <lane id="0_1_2"/>
        </edge>
        <edge id="1_2">
            <lane id="1_2_0"/>
            <lane id="1_2_1">
                <vehicle id="0" pos="9.09" speed="16.29"/>
            </lane>
            <lane id="1_2_2"/>
        </edge>
        <edge id="3_2">
            <lane id="3_2_0">
                <vehicle id="1" pos="165.34" speed="16.29"/>
            </lane>
            <lane id="3_2_1">
                <vehicle id="3" pos="107.43" speed="18.30"/>
            </lane>
            <lane id="3_2_2"/>
        </edge>
    </timestep>
    <timestep time="2.00">
        <edge id="0_1">
            <lane id="0_1_0">
                <vehicle id="4" pos="119.63" speed="16.35"/>
            </lane>
            <lane id="0_1_1">
                <vehicle id="2" pos="29.18" speed="18.22"/>
            </lane>
            <lane id="0_1_2"/>
        </edge>
        <edge id="1_2">
            <lane id="1_2_0"/>
            <lane id="1_2_1">
                <vehicle id="0" pos="10.73" speed="16.42"/>
            </lane>
            <lane id="1_2_2"/>
        </edge>
        <edge id="3_2">
            <lane id="3_2_0">
                <vehicle id="1" pos="166.97" speed="16.35"/>
            </lane>
            <lane id="3_2_1">
                <vehicle id="3" pos="109.25" speed="18.24"/>
            </lane>
            <lane id="3_2_2"/>
        </edge>
    </timestep>
    <timestep time="2.10">
        <edge id="0_1">
            <lane id="0_1_0">
                <vehicle id="4" pos="121.26" speed="16.34"/>
            </lane>
            <lane id="0_1_1">
                <vehicle id="2" pos="31.01" speed="18.30"/>
            </lane>
            <lane id="0_1_2"/>
        </edge>
        <edge id="1_2">
            <lane id="1_2_0"/>
            <lane id="1_2_1">
                <vehicle id="0" pos="12.39" speed="16.57"/>
            </lane>
            <lane id="1_2_2"/>
        </edge>
        <edge id="3_2">
            <lane id="3_2_0">
                <vehicle id="1" pos="168.60" speed="16.26"/>
            </lane>
            <lane id="3_2_1">
                <vehicle id="3" pos="111.08" speed="18.30"/>
            </lane>
            <lane id="3_2_2"/>
        </edge>
    </timestep>
    <timestep time="2.20">
        <edge id="0_1">
            <lane id="0_1_0">
                <vehicle id="4" pos="122.89" speed="16.33"/>
            </lane>
            <lane id="0_1_1">
                <vehicle id="2" pos="32.84" speed="18.32"/>
            </lane>
            <lane id="0_1_2"/>
        </edge>
        <edge id="1_2">
            <lane id="1_2_0"/>
            <lane id="1_2_1">
                <vehicle id="0" pos="14.06" speed="16.72"/>
            </lane>
            <lane id="1_2_2"/>
        </edge>
        <edge id="3_2">
            <lane id="3_2_0">
                <vehicle id="1" pos="170.23" speed="16.31"/>
            </lane>
            <lane id="3_2_1">
                <vehicle id="3" pos="112.91" speed="18.26"/>
            </lane>
            <lane id="3_2_2"/>
        </edge>
    </timestep>
    <timestep time="2.30">
        <edge id="0_1">
            <lane id="0_1_0">
                <vehicle id="4" pos="124.52" speed="16.26"/>
            </lane>
            <lane id="0_1_1">
                <vehicle id="2" pos="34.67" speed="18.31"/>
            </lane>
            <lane id="0_1_2"/>
        </edge>
        <edge id="1_2">
            <lane id="1_2_0"/>
            <lane id="1_2_1">
                <vehicle id="0" pos="15.76" speed="16.98"/>
            </lane>
            <lane id="1_2_2"/>
        </edge>
        <edge id="3_2">
            <lane id="3_2_0">
                <vehicle id="1" pos="171.86" speed="16.33"/>
            </lane>
            <lane id="3_2_1">
                <vehicle id="3" pos="114.73" speed="18.23"/>
            </lane>
            <lane id="3_2_2">
                <vehicle id="5" pos="8.72" speed="19.44"/>
            </lane>
        </edge>
    </timestep>
    <timestep time="2.40">
        <edge id="0_1">
            <lane id="0_1_0">
                <vehicle id="4" pos="126.15" speed="16.34"/>
            </lane>
            <lane id="0_1_1">
                <vehicle id="2" pos="36.50" speed="18.31"/>
            </lane>
            <lane id="0_1_2"/>
        </edge>
        <edge id="1_2">
            <lane id="1_2_0"/>
            <lane id="1_2_1">
                <vehicle id="0" pos="17.48" speed="17.18"/>
            </lane>
            <lane id="1_2_2"/>
        </edge>
        <edge id="3_2">
            <lane id="3_2_0"/>
            <lane id="3_2_1">
                <vehicle id="3" pos="116.56" speed="18.29"/>
                <vehicle id="1" pos="173.50" speed="16.36"/>
            </lane>
            <lane id="3_2_2">
                <vehicle id="5" pos="10.65" speed="19.31"/>
            </lane>
        </edge>
    </timestep>
    <timestep time="2.50">
        <edge id="0_1">
            <lane id="0_1_0">
                <vehicle id="4" pos="127.78" speed="16.30"/>
            </lane>
            <lane id="0_1_1">
                <vehicle id="2" pos="38.33" speed="18.31"/>
            </lane>
            <lane id="0_1_2"/>
        </edge>
        <edge id="1_2">
            <lane id="1_2_0"/>
            <lane id="1_2_1">
                <vehicle id="0" pos="19.22" speed="17.42"/>
            </lane>
            <lane id="1_2_2"/>
        </edge>
        <edge id="3_2">
            <lane id="3_2_0"/>
            <lane id="3_2_1">
                <vehicle id="3" pos="118.39" speed="18.31"/>
                <vehicle id="1" pos="175.15" speed="16.59"/>
            </lane>
            <lane id="3_2_2">
                <vehicle id="5" pos="12.59" speed="19.35"/>
            </lane>
        </edge>
    </timestep>
    <timestep time="2.60">
        <edge id="0_1">
            <lane id="0_1_0">
                <vehicle id="4" pos="129.41" speed="16.31"/>
            </lane>
            <lane id="0_1_1">
                <vehicle id="2" pos="40.16" speed="18.24"/>
            </lane>
            <lane id="0_1_2"/>
        </edge>
        <edge id="1_2">
            <lane id="1_2_0"/>
            <lane id="1_2_1">
                <vehicle id="0" pos="20.99" speed="17.67"/>
            </lane>
            <lane id="1_2_2"/>
        </edge>
        <edge id="3_2">
            <lane id="3_2_0"/>
            <lane id="3_2_1">
                <vehicle id="3" pos="120.22" speed="18.30"/>
                <vehicle id="1" pos="176.83" speed="16.73"/>
            </lane>
            <lane id="3_2_2">
                <vehicle id="5" pos="14.53" speed="19.38"/>
            </lane>
        </edge>
    </timestep>
    <timestep time="2.70">
        <edge id="0_1">
            <lane id="0_1_0">
                <vehicle id="4" pos="131.04" speed="16.30"/>
            </lane>
            <lane id="0_1_1">
                <vehicle id="2" pos="41.98" speed="18.25"/>
            </lane>
            <lane id="0_1_2"/>
        </edge>
        <edge id="1_2">
            <lane id="1_2_0"/>
            <lane id="1_2_1">
                <vehicle id="0" pos="22.78" speed="17.91"/>
            </lane>
            <lane id="1_2_2"/>
        </edge>
        <edge id="3_2">
            <lane id="3_2_0"/>
            <lane id="3_2_1">
                <vehicle id="3" pos="122.04" speed="18.22"/>
                <vehicle id="1" pos="178.52" speed="16.89"/>
            </lane>
            <lane id="3_2_2">
                <vehicle id="5" pos="16.46" speed="19.37"/>
            </lane>
        </edge>
    </timestep>
    <timestep time="2.80">
        <edge id="0_1">
            <lane id="0_1_0">
                <vehicle id="4" pos="132.67" speed="16.30"/>
            </lane>
            <lane id="0_1_1">
                <vehicle id="2" pos="43.81" speed="18.28"/>
            </lane>
            <lane id="0_1_2">
                <vehicle id="6" pos="148.65" speed="19.44"/>
            </lane>
        </edge>
        <edge id="1_2">
            <lane id="1_2_0"/>
            <lane id="1_2_1">
                <vehicle id="0" pos="24.58" speed="18.07"/>
            </lane>
            <lane id="1_2_2"/>
        </edge>
        <edge id="3_2">
            <lane id="3_2_0"/>
            <lane id="3_2_1">
                <vehicle id="3" pos="123.87" speed="18.28"/>
                <vehicle id="1" pos="180.23" speed="17.10"/>
            </lane>
            <lane id="3_2_2">
                <vehicle id="5" pos="18.41" speed="19.43"/>
            </lane>
        </edge>
    </timestep>
    <timestep time="2.90">
        <edge id="0_1">
            <lane id="0_1_0">
                <vehicle id="4" pos="134.31" speed="16.33"/>
            </lane>
            <lane id="0_1_1">
                <vehicle id="2" pos="45.63" speed="18.20"/>
            </lane>
            <lane id="0_1_2">
                <vehicle id="6" pos="150.59" speed="19.38"/>
            </lane>
        </edge>
        <edge id="1_2">
            <lane id="1_2_0"/>
            <lane id="1_2_1">
                <vehicle id="0" pos="26.41" speed="18.27"/>
            </lane>
            <lane id="1_2_2"/>
        </edge>
        <edge id="3_2">
            <lane id="3_2_0"/>
            <lane id="3_2_1">
                <vehicle id="3" pos="125.70" speed="18.28"/>
                <vehicle id="1" pos="181.96" speed="17.32"/>
            </lane>
            <lane id="3_2_2">
                <vehicle id="5" pos="20.34" speed="19.33"/>
            </lane>
        </edge>
    </timestep>
    <timestep time="3.00">
        <edge id="0_1">
            <lane id="0_1_0">
                <vehicle id="4" pos="135.94" speed="16.32"/>
            </lane>
            <lane id="0_1_1">
                <vehicle id="2" pos="47.45" speed="18.23"/>
            </lane>
            <lane id="0_1_2">
                <vehicle id="6" pos="152.53" speed="19.36"/>
            </lane>
        </edge>
        <edge id="1_2">
            <lane id="1_2_0"/>
            <lane id="1_2_1">
                <vehicle id="0" pos="28.24" speed="18.29"/>
            </lane>
            <lane id="1_2_2"/>
        </edge>
        <edge id="3_2">
            <lane id="3_2_0"/>
            <lane id="3_2_1">
                <vehicle id="3" pos="127.52" speed="18.27"/>
                <vehicle id="1" pos="183.71" speed="17.53"/>
            </lane>
            <lane id="3_2_2">
                <vehicle id="5" pos="22.28" speed="19.40"/>
            </lane>
        </edge>
    </timestep>
    <timestep time="3.10">
        <edge id="0_1">
            <lane id="0_1_0">
                <vehicle id="4" pos="137.58" speed="16.37"/>
            </lane>
            <lane id="0_1_1">
                <vehicle id="2" pos="49.28" speed="18.30"/>
            </lane>
            <lane id="0_1_2">
                <vehicle id="6" pos="154.46" speed="19.33"/>
            </lane>
        </edge>
        <edge id="1_2">
            <lane id="1_2_0"/>
            <lane id="1_2_1">
                <vehicle id="0" pos="30.07" speed="18.33"/>
            </lane>
            <lane id="1_2_2"/>
        </edge>
        <edge id="3_2">
            <lane id="3_2_0"/>
            <lane id="3_2_1">
                <vehicle id="3" pos="129.35" speed="18.28"/>
                <vehicle id="1" pos="185.49" speed="17.75"/>
            </lane>
            <lane id="3_2_2">
                <vehicle id="5" pos="24.21" speed="19.34"/>
            </lane>
        </edge>
    </timestep>
    <timestep time="3.20">
        <edge id="0_1">
            <lane id="0_1_0">
                <vehicle id="4" pos="139.20" speed="16.29"/>
            </lane>
            <lane id="0_1_1">
                <vehicle id="2" pos="51.10" speed="18.21"/>
            </lane>
            <lane id="0_1_2">
                <vehicle id="6" pos="156.40" speed="19.42"/>
            </lane>
        </edge>
        <edge id="1_2">
            <lane id="1_2_0"/>
            <lane id="1_2_1">
                <vehicle id="0" pos="31.90" speed="18.25"/>
            </lane>
            <lane id="1_2_2"/>
        </edge>
        <edge id="3_2">
            <lane id="3_2_0"/>
            <lane id="3_2_1">
                <vehicle id="3" pos="131.18" speed="18.30"/>
                <vehicle id="1" pos="187.28" speed="17.92"/>
            </lane>
            <lane id="3_2_2">
                <vehicle id="5" pos="26.15" speed="19.41"/>
            </lane>
        </edge>
    </timestep>
    <timestep time="3.30">
        <edge id="0_1">
            <lane id="0_1_0">
                <vehicle id="4" pos="140.84" speed="16.32"/>
            </lane>
            <lane id="0_1_1">
                <vehicle id="2" pos="52.93" speed="18.25"/>
            </lane>
            <lane id="0_1_2">
                <vehicle id="6" pos="158.33" speed="19.32"/>
            </lane>
        </edge>
        <edge id="1_2">
            <lane id="1_2_0"/>
            <lane id="1_2_1">
                <vehicle id="0" pos="33.73" speed="18.30"/>
            </lane>
            <lane id="1_2_2"/>
        </edge>
        <edge id="3_2">
            <lane id="3_2_0">
                <vehicle id="7" pos="49.50" speed="16.38"/>
            </lane>
            <lane id="3_2_1">
                <vehicle id="3" pos="133.01" speed="18.29"/>
                <vehicle id="1" pos="189.09" speed="18.13"/>
            </lane>
            <lane id="3_2_2">
                <vehicle id="5" pos="28.10" speed="19.42"/>
            </lane>
        </edge>
    </timestep>
    <timestep time="3.40">
        <edge id="0_1">
            <lane id="0_1_0">
                <vehicle id="4" pos="142.47" speed="16.34"/>
            </lane>
            <lane id="0_1_1">
                <vehicle id="2" pos="54.75" speed="18.26"/>
            </lane>
            <lane id="0_1_2">
                <vehicle id="6" pos="160.27" speed="19.36"/>
            </lane>
        </edge>
        <edge id="1_2">
            <lane id="1_2_0"/>
            <lane id="1_2_1">
                <vehicle id="0" pos="35.56" speed="18.28"/>
            </lane>
            <lane id="1_2_2"/>
        </edge>
        <edge id="3_2">
            <lane id="3_2_0">
                <vehicle id="7" pos="51.13" speed="16.33"/>
            </lane>
            <lane id="3_2_1">
                <vehicle id="3" pos="134.83" speed="18.24"/>
                <vehicle id="1" pos="190.92" speed="18.32"/>
            </lane>
            <lane id="3_2_2">
                <vehicle id="5" pos="30.04" speed="19.44"/>
            </lane>
        </edge>
    </timestep>
    <timestep time="3.50">
        <edge id="0_1">
            <lane id="0_1_0">
                <vehicle id="4" pos="144.11" speed="16.37"/>
            </lane>
            <lane id="0_1_1">
                <vehicle id="2" pos="56.58" speed="18.23"/>
            </lane>
            <lane id="0_1_2">
                <vehicle id="6" pos="162.20" speed="19.32"/>
            </lane>
        </edge>
        <edge id="1_2">
            <lane id="1_2_0"/>
            <lane id="1_2_1">
                <vehicle id="0" pos="37.38" speed="18.21"/>
            </lane>
            <lane id="1_2_2"/>
        </edge>
        <edge id="3_2">
            <lane id="3_2_0">
                <vehicle id="7" pos="52.77" speed="16.36"/>
            </lane>
            <lane id="3_2_1">
                <vehicle id="3" pos="136.66" speed="18.30"/>
                <vehicle id="1" pos="192.75" speed="18.30"/>
            </lane>
            <lane id="3_2_2">
                <vehicle id="5" pos="31.98" speed="19.39"/>
            </lane>
        </edge>
    </timestep>
    <timestep time="3.60">
        <edge id="0_1">
            <lane id="0_1_0">
                <vehicle id="4" pos="145.74" speed="16.36"/>
            </lane>
            <lane id="0_1_1">
                <vehicle id="2" pos="58.40" speed="18.25"/>
            </lane>
            <lane id="0_1_2">
                <vehicle id="6" pos="164.14" speed="19.37"/>
            </lane>
        </edge>
        <edge id="1_2">
            <lane id="1_2_0"/>
            <lane id="1_2_1">
                <vehicle id="0" pos="39.20" speed="18.24"/>
            </lane>
            <lane id="1_2_2"/>
        </edge>
        <edge id="3_2">
            <lane id="3_2_0">
                <vehicle id="7" pos="54.40" speed="16.33"/>
            </lane>
            <lane id="3_2_1">
                <vehicle id="3" pos="138.49" speed="18.24"/>
                <vehicle id="1" pos="194.58" speed="18.22"/>
            </lane>
            <lane id="3_2_2">
                <vehicle id="5" pos="33.91" speed="19.36"/>
            </lane>
        </edge>
    </timestep>
    <timestep time="3.70">
        <edge id="0_1">
            <lane id="0_1_0">
                <vehicle id="4" pos="147.37" speed="16.27"/>
            </lane>
            <lane id="0_1_1">
                <vehicle id="2" pos="60.23" speed="18.26"/>
            </lane>
            <lane id="0_1_2">
                <vehicle id="6" pos="166.08" speed="19.40"/>
            </lane>
        </edge>
        <edge id="1_2">
            <lane id="1_2_0"/>
            <lane id="1_2_1">
                <vehicle id="0" pos="41.03" speed="18.30"/>
            </lane>
            <lane id="1_2_2"/>
        </edge>
        <edge id="3_2">
            <lane id="3_2_0">
                <vehicle id="7" pos="56.04" speed="16.35"/>
            </lane>
            <lane id="3_2_1">
                <vehicle id="3" pos="140.32" speed="18.29"/>
                <vehicle id="1" pos="196.40" speed="18.25"/>
            </lane>
            <lane id="3_2_2">
                <vehicle id="5" pos="35.85" speed="19.32"/>
            </lane>
        </edge>
    </timestep>
    <timestep time="3.80">
        <edge id="0_1">
            <lane id="0_1_0">
                <vehicle id="8" pos="109.06" speed="16.38"/>
            </lane>
            <lane id="0_1_1">
                <vehicle id="2" pos="62.06" speed="18.32"/>
                <vehicle id="4" pos="149.01" speed="16.38"/>
            </lane>
            <lane id="0_1_2">
                <vehicle id="6" pos="168.01" speed="19.33"/>
            </lane>
        </edge>
        <edge id="1_2">
            <lane id="1_2_0"/>
            <lane id="1_2_1">
                <vehicle id="0" pos="42.85" speed="18.21"/>
            </lane>
            <lane id="1_2_2"/>
        </edge>
        <edge id="3_2">
            <lane id="3_2_0">
                <vehicle id="7" pos="57.67" speed="16.28"/>
            </lane>
            <lane id="3_2_1">
                <vehicle id="3" pos="142.15" speed="18.32"/>
                <vehicle id="1" pos="198.23" speed="18.33"/>
            </lane>
            <lane id="3_2_2">
                <vehicle id="5" pos="37.79" speed="19.43"/>
            </lane>
        </edge>
    </timestep>
    <timestep time="3.90">
        <edge id=":2_0">
            <lane id=":2_0_0"/>