<?xml version="1.0" encoding="UTF-8"?>

<!-- generated on Sun Apr 14 16:17:55 2019 by Eclipse SUMO Version UNKNOWN
<configuration xmlns:xsi="http://www.w3.org/2001/XMLSchema-instance" xsi:noNamespaceSchemaLocation="http://sumo.dlr.de/xsd/sumoConfiguration.xsd">

    <input>
        <net-file value="./sumo/net.net.xml"/>
        <route-files value="./sumo/routes.rou.xml"/>
    </input>

    <output>
        <netstate-dump value="./sumo/../../netstate.xml"/>
        <netstate-dump.empty-edges value="false"/>
    </output>

    <time>
        <step-length value="0.1"/>
    </time>

    <processing>
        <default.speeddev value="0"/>
    </processing>

    <report>
        <no-step-log value="true"/>
    </report>

    <traci_server>
        <remote-port value="46429"/>
    </traci_server>

    <gui_only>
        <tracker-interval value="0.1"/>
    </gui_only>

</configuration>
-->

<netstate xmlns:xsi="http://www.w3.org/2001/XMLSchema-instance" xsi:noNamespaceSchemaLocation="http://sumo.dlr.de/xsd/netstate_file.xsd">
    <timestep time="0.00"/>
    <timestep time="0.10"/>
    <timestep time="0.20"/>
    <timestep time="0.30"/>
    <timestep time="0.40"/>
    <timestep time="0.50"/>
    <timestep time="0.60"/>
    <timestep time="0.70"/>
    <timestep time="0.80"/>
    <timestep time="0.90"/>
    <timestep time="1.00">
        <edge id="EC">
            <lane id="EC_0">
                <vehicle id="veh1" pos="5.10" speed="0.00"/>
            </lane>
        </edge>
        <edge id="WC">
            <lane id="WC_0">
                <vehicle id="veh0" pos="5.10" speed="0.00"/>
            </lane>
        </edge>
    </timestep>
    <timestep time="1.10">
        <edge id="EC">
            <lane id="EC_0">
                <vehicle id="veh1" pos="5.13" speed="0.26"/>
            </lane>
        </edge>
        <edge id="WC">
            <lane id="WC_0">
                <vehicle id="veh0" pos="5.13" speed="0.26"/>
            </lane>
        </edge>
    </timestep>
    <timestep time="1.20">
        <edge id="EC">
            <lane id="EC_0">
                <vehicle id="veh1" pos="5.18" speed="0.52"/>
            </lane>
        </edge>
        <edge id="WC">
            <lane id="WC_0">
                <vehicle id="veh0" pos="5.18" speed="0.52"/>
            </lane>
        </edge>
    </timestep>
    <timestep time="1.30">
        <edge id="EC">
            <lane id="EC_0">
                <vehicle id="veh1" pos="5.26" speed="0.78"/>
            </lane>
        </edge>
        <edge id="WC">
            <lane id="WC_0">
                <vehicle id="veh0" pos="5.26" speed="0.78"/>
            </lane>
        </edge>
    </timestep>
    <timestep time="1.40">
        <edge id="EC">
            <lane id="EC_0">
                <vehicle id="veh1" pos="5.36" speed="1.04"/>
            </lane>
        </edge>
        <edge id="WC">
            <lane id="WC_0">
                <vehicle id="veh0" pos="5.36" speed="1.04"/>
            </lane>
        </edge>
    </timestep>
    <timestep time="1.50">
        <edge id="EC">
            <lane id="EC_0">
                <vehicle id="veh1" pos="5.49" speed="1.30"/>
            </lane>
        </edge>
        <edge id="WC">
            <lane id="WC_0">
                <vehicle id="veh0" pos="5.49" speed="1.30"/>
            </lane>
        </edge>
    </timestep>
    <timestep time="1.60">
        <edge id="EC">
            <lane id="EC_0">
                <vehicle id="veh1" pos="5.65" speed="1.56"/>
            </lane>
        </edge>
        <edge id="WC">
            <lane id="WC_0">
                <vehicle id="veh0" pos="5.65" speed="1.56"/>
            </lane>
        </edge>
    </timestep>
    <timestep time="1.70">
        <edge id="EC">
            <lane id="EC_0">
                <vehicle id="veh1" pos="5.83" speed="1.82"/>
            </lane>
        </edge>
        <edge id="WC">
            <lane id="WC_0">
                <vehicle id="veh0" pos="5.83" speed="1.82"/>
            </lane>
        </edge>
    </timestep>
    <timestep time="1.80">
        <edge id="EC">
            <lane id="EC_0">
                <vehicle id="veh1" pos="6.04" speed="2.08"/>
            </lane>
        </edge>
        <edge id="WC">
            <lane id="WC_0">
                <vehicle id="veh0" pos="6.04" speed="2.08"/>
            </lane>
        </edge>
    </timestep>
    <timestep time="1.90">
        <edge id="EC">
            <lane id="EC_0">
                <vehicle id="veh1" pos="6.27" speed="2.34"/>
            </lane>
        </edge>
        <edge id="WC">
            <lane id="WC_0">
                <vehicle id="veh0" pos="6.27" speed="2.34"/>
            </lane>
        </edge>
    </timestep>
    <timestep time="2.00">
        <edge id="EC">
            <lane id="EC_0">
                <vehicle id="veh1" pos="6.53" speed="2.60"/>
            </lane>
        </edge>
        <edge id="WC">
            <lane id="WC_0">
                <vehicle id="veh0" pos="6.53" speed="2.60"/>
            </lane>
        </edge>
    </timestep>
    <timestep time="2.10">
        <edge id="EC">
            <lane id="EC_0">
                <vehicle id="veh1" pos="6.82" speed="2.86"/>
            </lane>
        </edge>
        <edge id="WC">
            <lane id="WC_0">
                <vehicle id="veh0" pos="6.82" speed="2.86"/>
            </lane>
        </edge>
    </timestep>
    <timestep time="2.20">
        <edge id="EC">
            <lane id="EC_0">
                <vehicle id="veh1" pos="7.13" speed="3.12"/>
            </lane>
        </edge>
        <edge id="WC">
            <lane id="WC_0">
                <vehicle id="veh0" pos="7.13" speed="3.12"/>
            </lane>
        </edge>
    </timestep>
    <timestep time="2.30">
        <edge id="EC">
            <lane id="EC_0">
                <vehicle id="veh1" pos="7.47" speed="3.38"/>
            </lane>
        </edge>
        <edge id="WC">
            <lane id="WC_0">
                <vehicle id="veh0" pos="7.47" speed="3.38"/>
            </lane>
        </edge>
    </timestep>
    <timestep time="2.40">
        <edge id="EC">
            <lane id="EC_0">
                <vehicle id="veh1" pos="7.83" speed="3.64"/>
            </lane>
        </edge>
        <edge id="WC">
            <lane id="WC_0">
                <vehicle id="veh0" pos="7.83" speed="3.64"/>
            </lane>
        </edge>
    </timestep>
    <timestep time="2.50">
        <edge id="EC">
            <lane id="EC_0">
                <vehicle id="veh1" pos="8.22" speed="3.90"/>
            </lane>
        </edge>
        <edge id="WC">
            <lane id="WC_0">
                <vehicle id="veh0" pos="8.22" speed="3.90"/>
            </lane>
        </edge>
    </timestep>
    <timestep time="2.60">
        <edge id="EC">
            <lane id="EC_0">
                <vehicle id="veh1" pos="8.64" speed="4.16"/>
            </lane>
        </edge>
        <edge id="WC">
            <lane id="WC_0">
                <vehicle id="veh0" pos="8.64" speed="4.16"/>
            </lane>
        </edge>
    </timestep>
    <timestep time="2.70">
        <edge id="EC">
            <lane id="EC_0">
                <vehicle id="veh1" pos="9.08" speed="4.42"/>
            </lane>
        </edge>
        <edge id="WC">
            <lane id="WC_0">
                <vehicle id="veh0" pos="9.08" speed="4.42"/>
            </lane>
        </edge>
    </timestep>
    <timestep time="2.80">
        <edge id="EC">
            <lane id="EC_0">
                <vehicle id="veh1" pos="9.55" speed="4.68"/>
            </lane>
        </edge>
        <edge id="WC">
            <lane id="WC_0">
                <vehicle id="veh0" pos="9.55" speed="4.68"/>
            </lane>
        </edge>
    </timestep>
    <timestep time="2.90">
        <edge id="EC">
            <lane id="EC_0">
                <vehicle id="veh1" pos="10.04" speed="4.94"/>
            </lane>
        </edge>
        <edge id="WC">
            <lane id="WC_0">
                <vehicle id="veh0" pos="10.04" speed="4.94"/>
            </lane>
        </edge>
    </timestep>
    <timestep time="3.00">
        <edge id="EC">
            <lane id="EC_0">
                <vehicle id="veh1" pos="10.56" speed="5.20"/>
            </lane>
        </edge>
        <edge id="WC">
            <lane id="WC_0">
                <vehicle id="veh0" pos="10.56" speed="5.20"/>
            </lane>
        </edge>
    </timestep>
    <timestep time="3.10">
        <edge id="EC">
            <lane id="EC_0">
                <vehicle id="veh1" pos="11.11" speed="5.46"/>
            </lane>
        </edge>
        <edge id="WC">
            <lane id="WC_0">
                <vehicle id="veh0" pos="11.11" speed="5.46"/>
            </lane>
        </edge>
    </timestep>
    <timestep time="3.20">
        <edge id="EC">
            <lane id="EC_0">
                <vehicle id="veh1" pos="11.68" speed="5.72"/>
            </lane>
        </edge>
        <edge id="WC">
            <lane id="WC_0">
                <vehicle id="veh0" pos="11.68" speed="5.72"/>
            </lane>
        </edge>
    </timestep>
    <timestep time="3.30">
        <edge id="EC">
            <lane id="EC_0">
                <vehicle id="veh1" pos="12.28" speed="5.98"/>
            </lane>
        </edge>
        <edge id="WC">
            <lane id="WC_0">
                <vehicle id="veh0" pos="12.28" speed="5.98"/>
            </lane>
        </edge>
    </timestep>
    <timestep time="3.40">
        <edge id="EC">
            <lane id="EC_0">
                <vehicle id="veh1" pos="12.90" speed="6.24"/>
            </lane>
        </edge>
        <edge id="WC">
            <lane id="WC_0">
                <vehicle id="veh0" pos="12.90" speed="6.24"/>
            </lane>
        </edge>
    </timestep>
    <timestep time="3.50">
        <edge id="EC">
            <lane id="EC_0">
                <vehicle id="veh1" pos="13.55" speed="6.50"/>
            </lane>
        </edge>
        <edge id="WC">
            <lane id="WC_0">
                <vehicle id="veh0" pos="13.55" speed="6.50"/>
            </lane>
        </edge>
    </timestep>
    <timestep time="3.60">
        <edge id="EC">
            <lane id="EC_0">
                <vehicle id="veh1" pos="14.23" speed="6.76"/>
            </lane>
        </edge>
        <edge id="WC">
            <lane id="WC_0">
                <vehicle id="veh0" pos="14.23" speed="6.76"/>
            </lane>
        </edge>
    </timestep>
    <timestep time="3.70">
        <edge id="EC">
            <lane id="EC_0">
                <vehicle id="veh1" pos="14.93" speed="7.02"/>
            </lane>
        </edge>
        <edge id="WC">
            <lane id="WC_0">
                <vehicle id="veh0" pos="14.93" speed="7.02"/>
            </lane>
        </edge>
    </timestep>
    <timestep time="3.80">
        <edge id="EC">
            <lane id="EC_0">
                <vehicle id="veh1" pos="15.66" speed="7.28"/>
            </lane>
        </edge>
        <edge id="WC">
            <lane id="WC_0">
                <vehicle id="veh0" pos="15.66" speed="7.28"/>
            </lane>
        </edge>
    </timestep>
    <timestep time="3.90">
        <edge id="EC">
            <lane id="EC_0">
                <vehicle id="veh1" pos="16.41" speed="7.54"/>
            </lane>
        </edge>
        <edge id="WC">
            <lane id="WC_0">
                <vehicle id="veh0" pos="16.41" speed="7.54"/>
            </lane>
        </edge>
    </timestep>
    <timestep time="4.00">
        <edge id="EC">
            <lane id="EC_0">
                <vehicle id="veh1" pos="17.19" speed="7.80"/>
            </lane>
        </edge>
        <edge id="WC">
            <lane id="WC_0">
                <vehicle id="veh0" pos="17.19" speed="7.80"/>
            </lane>
        </edge>
    </timestep>
    <timestep time="4.10">
        <edge id="EC">
            <lane id="EC_0">
                <vehicle id="veh1" pos="18.00" speed="8.06"/>
            </lane>
        </edge>
        <edge id="WC">
            <lane id="WC_0">
                <vehicle id="veh0" pos="18.00" speed="8.06"/>
            </lane>
        </edge>
    </timestep>
    <timestep time="4.20">
        <edge id="EC">
            <lane id="EC_0">
                <vehicle id="veh1" pos="18.83" speed="8.32"/>
            </lane>
        </edge>
        <edge id="WC">
            <lane id="WC_0">
                <vehicle id="veh0" pos="18.83" speed="8.32"/>
            </lane>
        </edge>
    </timestep>
    <timestep time="4.30">
        <edge id="EC">
            <lane id="EC_0">
                <vehicle id="veh1" pos="19.69" speed="8.58"/>
            </lane>
        </edge>
        <edge id="WC">
            <lane id="WC_0">
                <vehicle id="veh0" pos="19.69" speed="8.58"/>
            </lane>
        </edge>
    </timestep>
    <timestep time="4.40">
        <edge id="EC">
            <lane id="EC_0">
                <vehicle id="veh1" pos="20.57" speed="8.84"/>
            </lane>
        </edge>
        <edge id="WC">
            <lane id="WC_0">
                <vehicle id="veh0" pos="20.57" speed="8.84"/>
            </lane>
        </edge>
    </timestep>
    <timestep time="4.50">
        <edge id="EC">
            <lane id="EC_0">
                <vehicle id="veh1" pos="21.48" speed="9.10"/>
            </lane>
        </edge>
        <edge id="WC">
            <lane id="WC_0">
                <vehicle id="veh0" pos="21.48" speed="9.10"/>
            </lane>
        </edge>
    </timestep>
    <timestep time="4.60">
        <edge id="EC">
            <lane id="EC_0">
                <vehicle id="veh1" pos="22.42" speed="9.36"/>
            </lane>
        </edge>
        <edge id="WC">
            <lane id="WC_0">
                <vehicle id="veh0" pos="22.42" speed="9.36"/>
            </lane>
        </edge>
    </timestep>
    <timestep time="4.70">
        <edge id="EC">
            <lane id="EC_0">
                <vehicle id="veh1" pos="23.38" speed="9.62"/>
            </lane>
        </edge>
        <edge id="WC">
            <lane id="WC_0">
                <vehicle id="veh0" pos="23.38" speed="9.62"/>
            </lane>
        </edge>
    </timestep>
    <timestep time="4.80">
        <edge id="EC">
            <lane id="EC_0">
                <vehicle id="veh1" pos="24.37" speed="9.88"/>
            </lane>
        </edge>
        <edge id="WC">
            <lane id="WC_0">
                <vehicle id="veh0" pos="24.37" speed="9.88"/>
            </lane>
        </edge>
    </timestep>
    <timestep time="4.90">
        <edge id="EC">
            <lane id="EC_0">
                <vehicle id="veh1" pos="25.38" speed="10.14"/>
            </lane>
        </edge>
        <edge id="WC">
            <lane id="WC_0">
                <vehicle id="veh0" pos="25.38" speed="10.14"/>
            </lane>
        </edge>
    </timestep>
    <timestep time="5.00">
        <edge id="EC">
            <lane id="EC_0">
                <vehicle id="veh1" pos="26.42" speed="10.40"/>
            </lane>
        </edge>
        <edge id="WC">
            <lane id="WC_0">
                <vehicle id="veh0" pos="26.42" speed="10.40"/>
            </lane>
        </edge>
    </timestep>
    <timestep time="5.10">
        <edge id="EC">
            <lane id="EC_0">
                <vehicle id="veh1" pos="27.49" speed="10.66"/>
            </lane>
        </edge>
        <edge id="WC">
            <lane id="WC_0">
                <vehicle id="veh0" pos="27.49" speed="10.66"/>
            </lane>
        </edge>
    </timestep>
    <timestep time="5.20">
        <edge id="EC">
            <lane id="EC_0">
                <vehicle id="veh1" pos="28.58" speed="10.92"/>
            </lane>
        </edge>
        <edge id="WC">
            <lane id="WC_0">
                <vehicle id="veh0" pos="28.58" speed="10.92"/>
            </lane>
        </edge>
    </timestep>
    <timestep time="5.30">
        <edge id="EC">
            <lane id="EC_0">
                <vehicle id="veh1" pos="29.70" speed="11.18"/>
            </lane>
        </edge>
        <edge id="WC">
            <lane id="WC_0">
                <vehicle id="veh0" pos="29.70" speed="11.18"/>
            </lane>
        </edge>
    </timestep>
    <timestep time="5.40">
        <edge id="EC">
            <lane id="EC_0">
                <vehicle id="veh1" pos="30.84" speed="11.44"/>
            </lane>
        </edge>
        <edge id="WC">
            <lane id="WC_0">
                <vehicle id="veh0" pos="30.84" speed="11.44"/>
            </lane>
        </edge>
    </timestep>
    <timestep time="5.50">
        <edge id="EC">
            <lane id="EC_0">
                <vehicle id="veh1" pos="32.01" speed="11.70"/>
            </lane>
        </edge>
        <edge id="WC">
            <lane id="WC_0">
                <vehicle id="veh0" pos="32.01" speed="11.70"/>
            </lane>
        </edge>
    </timestep>
    <timestep time="5.60">
        <edge id="EC">
            <lane id="EC_0">
                <vehicle id="veh1" pos="33.21" speed="11.96"/>
            </lane>
        </edge>
        <edge id="WC">
            <lane id="WC_0">
                <vehicle id="veh0" pos="33.21" speed="11.96"/>
            </lane>
        </edge>
    </timestep>
    <timestep time="5.70">
        <edge id="EC">
            <lane id="EC_0">
                <vehicle id="veh1" pos="34.43" speed="12.22"/>
            </lane>
        </edge>
        <edge id="WC">
            <lane id="WC_0">
                <vehicle id="veh0" pos="34.43" speed="12.22"/>
            </lane>
        </edge>
    </timestep>
    <timestep time="5.80">
        <edge id="EC">
            <lane id="EC_0">
                <vehicle id="veh1" pos="35.68" speed="12.48"/>
            </lane>
        </edge>
        <edge id="WC">
            <lane id="WC_0">
                <vehicle id="veh0" pos="35.68" speed="12.48"/>
            </lane>
        </edge>
    </timestep>
    <timestep time="5.90">
        <edge id="EC">
            <lane id="EC_0">
                <vehicle id="veh1" pos="36.95" speed="12.74"/>
            </lane>
        </edge>
        <edge id="WC">
            <lane id="WC_0">
                <vehicle id="veh0" pos="36.95" speed="12.74"/>
            </lane>
        </edge>
    </timestep>
    <timestep time="6.00">
        <edge id="EC">
            <lane id="EC_0">
                <vehicle id="veh1" pos="38.25" speed="13.00"/>
            </lane>
        </edge>
        <edge id="WC">
            <lane id="WC_0">
                <vehicle id="veh0" pos="38.25" speed="13.00"/>
            </lane>
        </edge>
    </timestep>
    <timestep time="6.10">
        <edge id="EC">
            <lane id="EC_0">
                <vehicle id="veh1" pos="39.58" speed="13.26"/>
            </lane>
        </edge>
        <edge id="WC">
            <lane id="WC_0">
                <vehicle id="veh0" pos="39.58" speed="13.26"/>
            </lane>
        </edge>
    </timestep>
    <timestep time="6.20">
        <edge id="EC">
            <lane id="EC_0">
                <vehicle id="veh1" pos="40.93" speed="13.52"/>
            </lane>
        </edge>
        <edge id="WC">
            <lane id="WC_0">
                <vehicle id="veh0" pos="40.93" speed="13.52"/>
            </lane>
        </edge>
    </timestep>
    <timestep time="6.30">
        <edge id="EC">
            <lane id="EC_0">
                <vehicle id="veh1" pos="42.31" speed="13.78"/>
            </lane>
        </edge>
        <edge id="WC">
            <lane id="WC_0">
                <vehicle id="veh0" pos="42.31" speed="13.78"/>
            </lane>
        </edge>
    </timestep>
    <timestep time="6.40">
        <edge id="EC">
            <lane id="EC_0">
                <vehicle id="veh1" pos="43.69" speed="13.89"/>
            </lane>
        </edge>
        <edge id="WC">
            <lane id="WC_0">
                <vehicle id="veh0" pos="43.69" speed="13.89"/>
            </lane>
        </edge>
    </timestep>
    <timestep time="6.50">
        <edge id="EC">
            <lane id="EC_0">
                <vehicle id="veh1" pos="45.08" speed="13.89"/>
            </lane>
        </edge>
        <edge id="WC">
            <lane id="WC_0">
                <vehicle id="veh0" pos="45.08" speed="13.89"/>
            </lane>
        </edge>
    </timestep>
    <timestep time="6.60">
        <edge id="EC">
            <lane id="EC_0">
                <vehicle id="veh1" pos="46.47" speed="13.89"/>
            </lane>
        </edge>
        <edge id="WC">
            <lane id="WC_0">
                <vehicle id="veh0" pos="46.47" speed="13.89"/>
            </lane>
        </edge>
    </timestep>
    <timestep time="6.70">
        <edge id="EC">
            <lane id="EC_0">
                <vehicle id="veh1" pos="47.86" speed="13.89"/>
            </lane>
        </edge>
        <edge id="WC">
            <lane id="WC_0">
                <vehicle id="veh0" pos="47.86" speed="13.89"/>
            </lane>
        </edge>
    </timestep>
    <timestep time="6.80">
        <edge id="EC">
            <lane id="EC_0">
                <vehicle id="veh1" pos="49.25" speed="13.89"/>
            </lane>
        </edge>
        <edge id="WC">
            <lane id="WC_0">
                <vehicle id="veh0" pos="49.25" speed="13.89"/>
            </lane>
        </edge>
    </timestep>
    <timestep time="6.90">
        <edge id="EC">
            <lane id="EC_0">
                <vehicle id="veh1" pos="50.64" speed="13.89"/>
            </lane>
        </edge>
        <edge id="WC">
            <lane id="WC_0">
                <vehicle id="veh0" pos="50.64" speed="13.89"/>
            </lane>
        </edge>
    </timestep>
    <timestep time="7.00">
        <edge id="EC">
            <lane id="EC_0">
                <vehicle id="veh1" pos="52.03" speed="13.89"/>
            </lane>
        </edge>
        <edge id="WC">
            <lane id="WC_0">
                <vehicle id="veh0" pos="52.03" speed="13.89"/>
            </lane>
        </edge>
    </timestep>
    <timestep time="7.10">
        <edge id="EC">
            <lane id="EC_0">
                <vehicle id="veh1" pos="53.42" speed="13.89"/>
            </lane>
        </edge>
        <edge id="WC">
            <lane id="WC_0">
                <vehicle id="veh0" pos="53.42" speed="13.89"/>
            </lane>
        </edge>
    </timestep>
    <timestep time="7.20">
        <edge id="EC">
            <lane id="EC_0">
                <vehicle id="veh1" pos="54.81" speed="13.89"/>
            </lane>
        </edge>
        <edge id="WC">
            <lane id="WC_0">
                <vehicle id="veh0" pos="54.81" speed="13.89"/>
            </lane>
        </edge>
    </timestep>
    <timestep time="7.30">
        <edge id="EC">
            <lane id="EC_0">
                <vehicle id="veh1" pos="56.20" speed="13.89"/>
            </lane>
        </edge>
        <edge id="WC">
            <lane id="WC_0">
                <vehicle id="veh0" pos="56.20" speed="13.89"/>
            </lane>
        </edge>
    </timestep>
    <timestep time="7.40">
        <edge id="EC">
            <lane id="EC_0">
                <vehicle id="veh1" pos="57.59" speed="13.89"/>
            </lane>
        </edge>
        <edge id="WC">
            <lane id="WC_0">
                <vehicle id="veh0" pos="57.59" speed="13.89"/>
            </lane>
        </edge>
    </timestep>
    <timestep time="7.50">
        <edge id="EC">
            <lane id="EC_0">
                <vehicle id="veh1" pos="58.97" speed="13.89"/>
            </lane>
        </edge>
        <edge id="WC">
            <lane id="WC_0">
                <vehicle id="veh0" pos="58.97" speed="13.89"/>
            </lane>
        </edge>
    </timestep>
    <timestep time="7.60">
        <edge id="EC">
            <lane id="EC_0">
                <vehicle id="veh1" pos="60.36" speed="13.89"/>
            </lane>
        </edge>
        <edge id="WC">
            <lane id="WC_0">
                <vehicle id="veh0" pos="60.36" speed="13.89"/>
            </lane>
        </edge>
    </timestep>
    <timestep time="7.70">
        <edge id="EC">
            <lane id="EC_0">
                <vehicle id="veh1" pos="61.75" speed="13.89"/>
            </lane>
        </edge>
        <edge id="WC">
            <lane id="WC_0">
                <vehicle id="veh0" pos="61.75" speed="13.89"/>
            </lane>
        </edge>
    </timestep>
    <timestep time="7.80">
        <edge id="EC">
            <lane id="EC_0">
                <vehicle id="veh1" pos="63.14" speed="13.89"/>
            </lane>
        </edge>
        <edge id="WC">
            <lane id="WC_0">
                <vehicle id="veh0" pos="63.14" speed="13.89"/>
            </lane>
        </edge>
    </timestep>
    <timestep time="7.90">
        <edge id="EC">
            <lane id="EC_0">
                <vehicle id="veh1" pos="64.53" speed="13.89"/>
            </lane>
        </edge>
        <edge id="WC">
            <lane id="WC_0">
                <vehicle id="veh0" pos="64.53" speed="13.89"/>
            </lane>
        </edge>
    </timestep>
    <timestep time="8.00">
        <edge id="EC">
            <lane id="EC_0">
                <vehicle id="veh1" pos="65.92" speed="13.89"/>
            </lane>
        </edge>
        <edge id="WC">
            <lane id="WC_0">
                <vehicle id="veh0" pos="65.92" speed="13.89"/>
            </lane>
        </edge>
    </timestep>
    <timestep time="8.10">
        <edge id="EC">
            <lane id="EC_0">
                <vehicle id="veh1" pos="67.31" speed="13.89"/>
            </lane>
        </edge>
        <edge id="WC">
            <lane id="WC_0">
                <vehicle id="veh0" pos="67.31" speed="13.89"/>
            </lane>
        </edge>
    </timestep>
    <timestep time="8.20">
        <edge id="EC">
            <lane id="EC_0">
                <vehicle id="veh1" pos="68.70" speed="13.89"/>
            </lane>
        </edge>
        <edge id="WC">
            <lane id="WC_0">
                <vehicle id="veh0" pos="68.70" speed="13.89"/>
            </lane>
        </edge>
    </timestep>
    <timestep time="8.30">
        <edge id="EC">
            <lane id="EC_0">
                <vehicle id="veh1" pos="70.09" speed="13.89"/>
            </lane>
        </edge>
        <edge id="WC">
            <lane id="WC_0">
                <vehicle id="veh0" pos="70.09" speed="13.89"/>
            </lane>
        </edge>
    </timestep>
    <timestep time="8.40">
        <edge id="EC">
            <lane id="EC_0">
                <vehicle id="veh1" pos="71.48" speed="13.89"/>
            </lane>
        </edge>
        <edge id="WC">
            <lane id="WC_0">
                <vehicle id="veh0" pos="71.48" speed="13.89"/>
            </lane>
        </edge>
    </timestep>
    <timestep time="8.50">
        <edge id="EC">
            <lane id="EC_0">
                <vehicle id="veh1" pos="72.83" speed="13.60"/>
            </lane>
        </edge>
        <edge id="WC">
            <lane id="WC_0">
                <vehicle id="veh0" pos="72.86" speed="13.89"/>
            </lane>
        </edge>
    </timestep>
    <timestep time="8.60">
        <edge id="EC">
            <lane id="EC_0">
                <vehicle id="veh1" pos="74.15" speed="13.15"/>
            </lane>
        </edge>
        <edge id="WC">
            <lane id="WC_0">
                <vehicle id="veh0" pos="74.25" speed="13.89"/>
            </lane>
        </edge>
    </timestep>
    <timestep time="8.70">
        <edge id="EC">
            <lane id="EC_0">
                <vehicle id="veh1" pos="75.42" speed="12.70"/>
            </lane>
        </edge>
        <edge id="WC">
            <lane id="WC_0">
                <vehicle id="veh0" pos="75.64" speed="13.89"/>
            </lane>
        </edge>
    </timestep>
    <timestep time="8.80">
        <edge id="EC">
            <lane id="EC_0">
                <vehicle id="veh1" pos="76.64" speed="12.25"/>
            </lane>
        </edge>
        <edge id="WC">
            <lane id="WC_0">
                <vehicle id="veh0" pos="77.03" speed="13.89"/>
            </lane>
        </edge>
    </timestep>
    <timestep time="8.90">
        <edge id="EC">
            <lane id="EC_0">
                <vehicle id="veh1" pos="77.82" speed="11.80"/>
            </lane>
        </edge>
        <edge id="WC">
            <lane id="WC_0">
                <vehicle id="veh0" pos="78.42" speed="13.89"/>
            </lane>
        </edge>
    </timestep>
    <timestep time="9.00">
        <edge id="EC">
            <lane id="EC_0">
                <vehicle id="veh1" pos="78.96" speed="11.35"/>
            </lane>
        </edge>
        <edge id="WC">
            <lane id="WC_0">
                <vehicle id="veh0" pos="79.81" speed="13.89"/>
            </lane>
        </edge>
    </timestep>
    <timestep time="9.10">
        <edge id="EC">
            <lane id="EC_0">
                <vehicle id="veh1" pos="80.05" speed="10.90"/>
            </lane>
        </edge>
        <edge id="WC">
            <lane id="WC_0">
                <vehicle id="veh0" pos="81.20" speed="13.89"/>
            </lane>
        </edge>
    </timestep>
    <timestep time="9.20">
        <edge id="EC">
            <lane id="EC_0">
                <vehicle id="veh1" pos="81.09" speed="10.45"/>
            </lane>
        </edge>
        <edge id="WC">
            <lane id="WC_0">
                <vehicle id="veh0" pos="82.59" speed="13.89"/>
            </lane>
        </edge>
    </timestep>
    <timestep time="9.30">
        <edge id="EC">
            <lane id="EC_0">
                <vehicle id="veh1" pos="82.09" speed="10.00"/>
            </lane>