<?xml version="1.0" encoding="UTF-8"?>

<!-- generated on Tue Apr  9 17:46:30 2019 by Eclipse SUMO Version UNKNOWN
<configuration xmlns:xsi="http://www.w3.org/2001/XMLSchema-instance" xsi:noNamespaceSchemaLocation="http://sumo.dlr.de/xsd/sumoConfiguration.xsd">

    <input>
        <net-file value="./sumo/net.net.xml"/>
        <route-files value="./sumo/routes.rou.xml"/>
    </input>

    <output>
        <netstate-dump value="./sumo/../../netstate.xml"/>
        <netstate-dump.empty-edges value="false"/>
    </output>

    <time>
        <step-length value="0.1"/>
    </time>

    <processing>
        <default.speeddev value="0"/>
    </processing>

    <report>
        <no-step-log value="true"/>
    </report>

    <traci_server>
        <remote-port value="55897"/>
    </traci_server>

    <gui_only>
        <tracker-interval value="0.1"/>
    </gui_only>

</configuration>
-->

<netstate xmlns:xsi="http://www.w3.org/2001/XMLSchema-instance" xsi:noNamespaceSchemaLocation="http://sumo.dlr.de/xsd/netstate_file.xsd">
    <timestep time="0.00"/>
    <timestep time="0.10"/>
    <timestep time="0.20"/>
    <timestep time="0.30"/>
    <timestep time="0.40"/>
    <timestep time="0.50"/>
    <timestep time="0.60"/>
    <timestep time="0.70"/>
    <timestep time="0.80"/>
    <timestep time="0.90"/>
    <timestep time="1.00">
        <edge id="EC">
            <lane id="EC_0">
                <vehicle id="veh1" pos="5.10" speed="0.00"/>
            </lane>
        </edge>
        <edge id="WC">
            <lane id="WC_0">
                <vehicle id="veh0" pos="5.10" speed="0.00"/>
            </lane>
        </edge>
    </timestep>
    <timestep time="1.10">
        <edge id="EC">
            <lane id="EC_0">
                <vehicle id="veh1" pos="5.13" speed="0.26"/>
            </lane>
        </edge>
        <edge id="WC">
            <lane id="WC_0">
                <vehicle id="veh0" pos="5.13" speed="0.26"/>
            </lane>
        </edge>
    </timestep>
    <timestep time="1.20">
        <edge id="EC">
            <lane id="EC_0">
                <vehicle id="veh1" pos="5.18" speed="0.52"/>
            </lane>
        </edge>
        <edge id="WC">
            <lane id="WC_0">
                <vehicle id="veh0" pos="5.18" speed="0.52"/>
            </lane>
        </edge>
    </timestep>
    <timestep time="1.30">
        <edge id="EC">
            <lane id="EC_0">
                <vehicle id="veh1" pos="5.26" speed="0.78"/>
            </lane>
        </edge>
        <edge id="WC">
            <lane id="WC_0">
                <vehicle id="veh0" pos="5.26" speed="0.78"/>
            </lane>
        </edge>
    </timestep>
    <timestep time="1.40">
        <edge id="EC">
            <lane id="EC_0">
                <vehicle id="veh1" pos="5.36" speed="1.04"/>
            </lane>
        </edge>
        <edge id="WC">
            <lane id="WC_0">
                <vehicle id="veh0" pos="5.36" speed="1.04"/>
            </lane>
        </edge>
    </timestep>
    <timestep time="1.50">
        <edge id="EC">
            <lane id="EC_0">
                <vehicle id="veh1" pos="5.49" speed="1.30"/>
            </lane>
        </edge>
        <edge id="WC">
            <lane id="WC_0">
                <vehicle id="veh0" pos="5.49" speed="1.30"/>
            </lane>
        </edge>
    </timestep>
    <timestep time="1.60">
        <edge id="EC">
            <lane id="EC_0">
                <vehicle id="veh1" pos="5.65" speed="1.56"/>
            </lane>
        </edge>
        <edge id="WC">
            <lane id="WC_0">
                <vehicle id="veh0" pos="5.65" speed="1.56"/>
            </lane>
        </edge>
    </timestep>
    <timestep time="1.70">
        <edge id="EC">
            <lane id="EC_0">
                <vehicle id="veh1" pos="5.83" speed="1.82"/>
            </lane>
        </edge>
        <edge id="WC">
            <lane id="WC_0">
                <vehicle id="veh0" pos="5.83" speed="1.82"/>
            </lane>
        </edge>
    </timestep>
    <timestep time="1.80">
        <edge id="EC">
            <lane id="EC_0">
                <vehicle id="veh1" pos="6.04" speed="2.08"/>
            </lane>
        </edge>
        <edge id="WC">
            <lane id="WC_0">
                <vehicle id="veh0" pos="6.04" speed="2.08"/>
            </lane>
        </edge>
    </timestep>
    <timestep time="1.90">
        <edge id="EC">
            <lane id="EC_0">
                <vehicle id="veh1" pos="6.27" speed="2.34"/>
            </lane>
        </edge>
        <edge id="WC">
            <lane id="WC_0">
                <vehicle id="veh0" pos="6.27" speed="2.34"/>
            </lane>
        </edge>
    </timestep>
</netstate>
