<?xml version="1.0" encoding="UTF-8"?>

<!-- generated on Mon Mar 25 11:14:50 2019 by Eclipse SUMO Version UNKNOWN
<configuration xmlns:xsi="http://www.w3.org/2001/XMLSchema-instance" xsi:noNamespaceSchemaLocation="http://sumo.dlr.de/xsd/sumoConfiguration.xsd">

    <input>
        <net-file value="./sumo/net.net.xml"/>
        <route-files value="./sumo/routes.rou.xml"/>
    </input>

    <output>
        <netstate-dump value="./sumo/../../netstate.xml"/>
        <netstate-dump.empty-edges value="false"/>
    </output>

    <time>
        <step-length value="0.1"/>
    </time>

    <processing>
        <default.speeddev value="0"/>
    </processing>

    <report>
        <no-step-log value="true"/>
    </report>

    <traci_server>
        <remote-port value="44101"/>
    </traci_server>

    <gui_only>
        <tracker-interval value="0.1"/>
    </gui_only>

</configuration>
-->

<netstate xmlns:xsi="http://www.w3.org/2001/XMLSchema-instance" xsi:noNamespaceSchemaLocation="http://sumo.dlr.de/xsd/netstate_file.xsd">
    <timestep time="0.00"/>
</netstate>
